[Molden Format]
[Atoms] (AU)
O    1    8         0.000000000000       0.000000000000      -0.120191174533
H    2    1         0.000000000000      -1.423514335176       0.953760580214
H    3    1         0.000000000000       1.423514335176       0.953760580214
[GTO]
  1 0
 s    8  1.00
    11720.0000000000         0.0007100000
     1759.0000000000         0.0054700000
      400.8000000000         0.0278370000
      113.7000000000         0.1048000000
       37.0300000000         0.2830620000
       13.2700000000         0.4487190000
        5.0250000000         0.2709520000
        1.0130000000         0.0154580000
 s    8  1.00
    11720.0000000000        -0.0001600000
     1759.0000000000        -0.0012630000
      400.8000000000        -0.0062670000
      113.7000000000        -0.0257160000
       37.0300000000        -0.0709240000
       13.2700000000        -0.1654110000
        5.0250000000        -0.1169550000
        1.0130000000         0.5573680000
 s    1  1.00
        0.3023000000         1.0000000000
 p    3  1.00
       17.7000000000         0.0430180000
        3.8540000000         0.2289130000
        1.0460000000         0.5087280000
 p    1  1.00
        0.2753000000         1.0000000000
 d    1  1.00
        1.1850000000         1.0000000000
 s    1  1.00
        0.0789600000         1.0000000000
 p    1  1.00
        0.0685600000         1.0000000000
 d    1  1.00
        0.3320000000         1.0000000000

  2 0
 s    3  1.00
       13.0100000000         0.0196850000
        1.9620000000         0.1379770000
        0.4446000000         0.4781480000
 s    1  1.00
        0.1220000000         1.0000000000
 p    1  1.00
        0.7270000000         1.0000000000
 s    1  1.00
        0.0297400000         1.0000000000
 p    1  1.00
        0.1410000000         1.0000000000

  3 0
 s    3  1.00
       13.0100000000         0.0196850000
        1.9620000000         0.1379770000
        0.4446000000         0.4781480000
 s    1  1.00
        0.1220000000         1.0000000000
 p    1  1.00
        0.7270000000         1.0000000000
 s    1  1.00
        0.0297400000         1.0000000000
 p    1  1.00
        0.1410000000         1.0000000000

[5D]
[9G]

[MO]
 Sym= A1
 Ene=       -20.5742981856
 Spin= Alpha
 Occup=  2.0000
  1       1.001485264977
  2       0.002280954667
  3      -0.007150480634
  4       0.000000000000
  5       0.000000000000
  6       0.001663844948
  7       0.000000000000
  8       0.000000000000
  9      -0.001397909070
 10      -0.000000475608
 11       0.000000000000
 12       0.000000000000
 13      -0.000138814965
 14       0.000000000000
 15      -0.004518008689
 16       0.000000000000
 17       0.000000000000
 18      -0.000638285619
 19       0.000041403074
 20       0.000000000000
 21       0.000000000000
 22       0.000263151807
 23       0.000000000000
 24       0.000237823797
 25       0.003590556626
 26       0.000000000000
 27      -0.000419913012
 28       0.000313621232
 29       0.000321480575
 30       0.000000000000
 31       0.001182441254
 32      -0.000991733307
 33       0.000237823797
 34       0.003590556626
 35       0.000000000000
 36       0.000419913012
 37       0.000313621232
 38       0.000321480575
 39       0.000000000000
 40      -0.001182441254
 41      -0.000991733307
 Sym= A1
 Ene=        -1.3627680809
 Spin= Alpha
 Occup=  2.0000
  1       0.006470422907
  2      -0.447157592093
  3      -0.363840200377
  4       0.000000000000
  5       0.000000000000
  6      -0.079998628990
  7       0.000000000000
  8       0.000000000000
  9       0.021468503607
 10      -0.002597102748
 11       0.000000000000
 12       0.000000000000
 13       0.007216668512
 14       0.000000000000
 15      -0.055380746795
 16       0.000000000000
 17       0.000000000000
 18      -0.010891920138
 19       0.005014232931
 20       0.000000000000
 21       0.000000000000
 22      -0.021192864827
 23       0.000000000000
 24      -0.212228093405
 25       0.024763975018
 26       0.000000000000
 27      -0.038099318643
 28       0.022617562407
 29       0.001747795718
 30       0.000000000000
 31       0.004395180441
 32      -0.007541355686
 33      -0.212228093405
 34       0.024763975018
 35       0.000000000000
 36       0.038099318643
 37       0.022617562407
 38       0.001747795718
 39       0.000000000000
 40      -0.004395180441
 41      -0.007541355686
 Sym= B2
 Ene=        -0.7296937801
 Spin= Alpha
 Occup=  2.0000
  1       0.000000000000
  2       0.000000000000
  3       0.000000000000
  4       0.000000000000
  5       0.500797221514
  6       0.000000000000
  7       0.000000000000
  8       0.182353352476
  9       0.000000000000
 10       0.000000000000
 11       0.000000000000
 12       0.029257244469
 13       0.000000000000
 14       0.000000000000
 15       0.000000000000
 16       0.000000000000
 17       0.018145422765
 18       0.000000000000
 19       0.000000000000
 20       0.000000000000
 21      -0.033372784444
 22       0.000000000000
 23       0.000000000000
 24      -0.355833611933
 25      -0.083849504261
 26       0.000000000000
 27      -0.026490177656
 28       0.034175614300
 29       0.004325521391
 30       0.000000000000
 31      -0.007319827513
 32       0.001818506571
 33       0.355833611933
 34       0.083849504261
 35       0.000000000000
 36      -0.026490177656
 37      -0.034175614300
 38      -0.004325521391
 39       0.000000000000
 40      -0.007319827513
 41      -0.001818506571
 Sym= A1
 Ene=        -0.5854173549
 Spin= Alpha
 Occup=  2.0000
  1       0.001311677761
  2       0.151080092150
  3       0.321782187294
  4       0.000000000000
  5       0.000000000000
  6      -0.551951549853
  7       0.000000000000
  8       0.000000000000
  9      -0.325671249212
 10      -0.014707740123
 11       0.000000000000
 12       0.000000000000
 13       0.004380062090
 14       0.000000000000
 15       0.076506160411
 16       0.000000000000
 17       0.000000000000
 18      -0.039806015791
 19      -0.016471299101
 20       0.000000000000
 21       0.000000000000
 22      -0.011968335060
 23       0.000000000000
 24      -0.210150756045
 25      -0.055664112500
 26       0.000000000000
 27      -0.030627823852
 28      -0.000061450633
 29      -0.003645365230
 30       0.000000000000
 31      -0.001878182723
 32      -0.013122314782
 33      -0.210150756045
 34      -0.055664112500
 35       0.000000000000
 36       0.030627823852
 37      -0.000061450633
 38      -0.003645365230
 39       0.000000000000
 40       0.001878182723
 41      -0.013122314782
 Sym= B1
 Ene=        -0.5101941987
 Spin= Alpha
 Occup=  2.0000
  1       0.000000000000
  2       0.000000000000
  3       0.000000000000
  4       0.628030987051
  5       0.000000000000
  6       0.000000000000
  7       0.449566884036
  8       0.000000000000
  9       0.000000000000
 10       0.000000000000
 11       0.014009100618
 12       0.000000000000
 13       0.000000000000
 14       0.000000000000
 15       0.000000000000
 16       0.068777151659
 17       0.000000000000
 18       0.000000000000
 19       0.000000000000
 20       0.018782322648
 21       0.000000000000
 22       0.000000000000
 23       0.000000000000
 24       0.000000000000
 25       0.000000000000
 26       0.026939120250
 27       0.000000000000
 28       0.000000000000
 29       0.000000000000
 30       0.015779724934
 31       0.000000000000
 32       0.000000000000
 33       0.000000000000
 34       0.000000000000
 35       0.026939120250
 36       0.000000000000
 37       0.000000000000
 38       0.000000000000
 39       0.015779724934
 40       0.000000000000
 41       0.000000000000
 Sym= A1
 Ene=         0.0358048792
 Spin= Alpha
 Occup=  0.0000
  1       0.004392690966
  2      -0.051735690902
  3      -0.227666783011
  4       0.000000000000
  5       0.000000000000
  6      -0.055836055065
  7       0.000000000000
  8       0.000000000000
  9      -0.127350374709
 10      -0.002513465051
 11       0.000000000000
 12       0.000000000000
 13       0.000398042367
 14       0.000000000000
 15      -1.589497777816
 16       0.000000000000
 17       0.000000000000
 18      -0.209231575344
 19       0.002168960036
 20       0.000000000000
 21       0.000000000000
 22       0.010158817398
 23       0.000000000000
 24       0.017816130824
 25       0.489482036673
 26       0.000000000000
 27      -0.004235848001
 28       0.002086033802
 29       0.841887674814
 30       0.000000000000
 31       0.085486899805
 32      -0.077738648993
 33       0.017816130824
 34       0.489482036673
 35       0.000000000000
 36       0.004235848001
 37       0.002086033802
 38       0.841887674814
 39       0.000000000000
 40      -0.085486899805
 41      -0.077738648993
 Sym= B2
 Ene=         0.0579056284
 Spin= Alpha
 Occup=  0.0000
  1       0.000000000000
  2       0.000000000000
  3       0.000000000000
  4       0.000000000000
  5       0.064284825650
  6       0.000000000000
  7       0.000000000000
  8       0.139359846198
  9       0.000000000000
 10       0.000000000000
 11       0.000000000000
 12       0.001569628262
 13       0.000000000000
 14       0.000000000000
 15       0.000000000000
 16       0.000000000000
 17       0.846545035031
 18       0.000000000000
 19       0.000000000000
 20       0.000000000000
 21       0.017452032196
 22       0.000000000000
 23       0.000000000000
 24      -0.001748676919
 25       0.570146168310
 26       0.000000000000
 27      -0.000284640255
 28       0.003921817645
 29       2.995248257111
 30       0.000000000000
 31       0.103063944086
 32      -0.130579921293
 33       0.001748676919
 34      -0.570146168310
 35       0.000000000000
 36      -0.000284640255
 37      -0.003921817645
 38      -2.995248257111
 39       0.000000000000
 40       0.103063944086
 41       0.130579921293
 Sym= A1
 Ene=         0.1738198747
 Spin= Alpha
 Occup=  0.0000
  1       0.029377546431
  2       0.079328706329
  3      -0.372781438816
  4       0.000000000000
  5       0.000000000000
  6       0.172813806923
  7       0.000000000000
  8       0.000000000000
  9       0.005857636688
 10       0.011849961554
 11       0.000000000000
 12       0.000000000000
 13      -0.002562498104
 14       0.000000000000
 15      -4.105416854771
 16       0.000000000000
 17       0.000000000000
 18      -1.919550372074
 19      -0.041227835915
 20       0.000000000000
 21       0.000000000000
 22       0.045793106412
 23       0.000000000000
 24       0.018178105667
 25       1.783029968888
 26       0.000000000000
 27       0.034448837328
 28      -0.023073234641
 29       0.617253126670
 30       0.000000000000
 31       0.323993950530
 32      -0.125912201596
 33       0.018178105667
 34       1.783029968888
 35       0.000000000000
 36      -0.034448837328
 37      -0.023073234641
 38       0.617253126670
 39       0.000000000000
 40      -0.323993950530
 41      -0.125912201596
 Sym= B1
 Ene=         0.1958269841
 Spin= Alpha
 Occup=  0.0000
  1       0.000000000000
  2       0.000000000000
  3       0.000000000000
  4       0.173954495528
  5       0.000000000000
  6       0.000000000000
  7       0.236476741447
  8       0.000000000000
  9       0.000000000000
 10       0.000000000000
 11       0.017446026072
 12       0.000000000000
 13       0.000000000000
 14       0.000000000000
 15       0.000000000000
 16      -1.453767467296
 17       0.000000000000
 18       0.000000000000
 19       0.000000000000
 20      -0.059329206891
 21       0.000000000000
 22       0.000000000000
 23       0.000000000000
 24       0.000000000000
 25       0.000000000000
 26      -0.009151679320
 27       0.000000000000
 28       0.000000000000
 29       0.000000000000
 30       0.294009894025
 31       0.000000000000
 32       0.000000000000
 33       0.000000000000
 34       0.000000000000
 35      -0.009151679320
 36       0.000000000000
 37       0.000000000000
 38       0.000000000000
 39       0.294009894025
 40       0.000000000000
 41       0.000000000000
 Sym= A1
 Ene=         0.2234473719
 Spin= Alpha
 Occup=  0.0000
  1       0.025427723457
  2       0.187230590531
  3      -0.037632767496
  4       0.000000000000
  5       0.000000000000
  6       0.047195168796
  7       0.000000000000
  8       0.000000000000
  9      -0.176954484578
 10      -0.007666260625
 11       0.000000000000
 12       0.000000000000
 13       0.003626696953
 14       0.000000000000
 15      -3.055860884393
 16       0.000000000000
 17       0.000000000000
 18       0.462213089907
 19       0.043266432018
 20       0.000000000000
 21       0.000000000000
 22       0.031954839489
 23       0.000000000000
 24      -0.035642420777
 25       0.560879118804
 26       0.000000000000
 27       0.020941161597
 28      -0.011609903432
 29       0.694052162066
 30       0.000000000000
 31       0.443245436251
 32      -0.490201658311
 33      -0.035642420777
 34       0.560879118804
 35       0.000000000000
 36      -0.020941161597
 37      -0.011609903432
 38       0.694052162066
 39       0.000000000000
 40      -0.443245436251
 41      -0.490201658311
 Sym= B2
 Ene=         0.2306140462
 Spin= Alpha
 Occup=  0.0000
  1       0.000000000000
  2       0.000000000000
  3       0.000000000000
  4       0.000000000000
  5       0.164996170108
  6       0.000000000000
  7       0.000000000000
  8      -0.271378349482
  9       0.000000000000
 10       0.000000000000
 11       0.000000000000
 12       0.007736409028
 13       0.000000000000
 14       0.000000000000
 15       0.000000000000
 16       0.000000000000
 17      -3.148113808313
 18       0.000000000000
 19       0.000000000000
 20       0.000000000000
 21      -0.093121025595
 22       0.000000000000
 23       0.000000000000
 24      -0.082273903038
 25      -2.727651005809
 26       0.000000000000
 27      -0.039008668800
 28       0.021413946433
 29      -2.746663187657
 30       0.000000000000
 31      -0.594157359787
 32       0.554778028746
 33       0.082273903038
 34       2.727651005809
 35       0.000000000000
 36      -0.039008668800
 37      -0.021413946433
 38       2.746663187657
 39       0.000000000000
 40      -0.594157359787
 41      -0.554778028746
 Sym= B2
 Ene=         0.2955126715
 Spin= Alpha
 Occup=  0.0000
  1       0.000000000000
  2       0.000000000000
  3       0.000000000000
  4       0.000000000000
  5       0.217940457464
  6       0.000000000000
  7       0.000000000000
  8       0.268659857991
  9       0.000000000000
 10       0.000000000000
 11       0.000000000000
 12      -0.016320424299
 13       0.000000000000
 14       0.000000000000
 15       0.000000000000
 16       0.000000000000
 17       0.919329088595
 18       0.000000000000
 19       0.000000000000
 20       0.000000000000
 21       0.075436928766
 22       0.000000000000
 23       0.000000000000
 24       0.122642922104
 25       0.968264721166
 26       0.000000000000
 27       0.014021108576
 28       0.000644721595
 29      -0.278536223984
 30       0.000000000000
 31      -0.443962016755
 32       0.503810994926
 33      -0.122642922104
 34      -0.968264721166
 35       0.000000000000
 36       0.014021108576
 37      -0.000644721595
 38       0.278536223984
 39       0.000000000000
 40      -0.443962016755
 41      -0.503810994926
 Sym= A1
 Ene=         0.3312349410
 Spin= Alpha
 Occup=  0.0000
  1       0.012436889587
  2       0.003639337010
  3      -0.237729192382
  4       0.000000000000
  5       0.000000000000
  6      -0.090702866798
  7       0.000000000000
  8       0.000000000000
  9      -0.222839292826
 10      -0.024713113346
 11       0.000000000000
 12       0.000000000000
 13      -0.024960376135
 14       0.000000000000
 15      -4.343508030607
 16       0.000000000000
 17       0.000000000000
 18      -0.573708085944
 19       0.089581827401
 20       0.000000000000
 21       0.000000000000
 22       0.106206348181
 23       0.000000000000
 24       0.115033581077
 25       2.361059421596
 26       0.000000000000
 27       0.008072693958
 28      -0.030590470837
 29       0.249530355239
 30       0.000000000000
 31      -0.384702728765
 32      -0.450523369563
 33       0.115033581077
 34       2.361059421596
 35       0.000000000000
 36      -0.008072693958
 37      -0.030590470837
 38       0.249530355239
 39       0.000000000000
 40       0.384702728765
 41      -0.450523369563
 Sym= A2
 Ene=         0.3860360227
 Spin= Alpha
 Occup=  0.0000
  1       0.000000000000
  2       0.000000000000
  3       0.000000000000
  4       0.000000000000
  5       0.000000000000
  6       0.000000000000
  7       0.000000000000
  8       0.000000000000
  9       0.000000000000
 10       0.000000000000
 11       0.000000000000
 12       0.000000000000
 13       0.000000000000
 14       0.040088414978
 15       0.000000000000
 16       0.000000000000
 17       0.000000000000
 18       0.000000000000
 19       0.000000000000
 20       0.000000000000
 21       0.000000000000
 22       0.000000000000
 23      -0.135582863998
 24       0.000000000000
 25       0.000000000000
 26      -0.004268924875
 27       0.000000000000
 28       0.000000000000
 29       0.000000000000
 30      -1.147590707709
 31       0.000000000000
 32       0.000000000000
 33       0.000000000000
 34       0.000000000000
 35       0.004268924875
 36       0.000000000000
 37       0.000000000000
 38       0.000000000000
 39       1.147590707709
 40       0.000000000000
 41       0.000000000000
 Sym= A1
 Ene=         0.4089669488
 Spin= Alpha
 Occup=  0.0000
  1       0.000120820343
  2       0.011784977933
  3      -0.000968301168
  4       0.000000000000
  5       0.000000000000
  6      -0.190769648618
  7       0.000000000000
  8       0.000000000000
  9      -0.791012530479
 10       0.019614427989
 11       0.000000000000
 12       0.000000000000
 13       0.011146228114
 14       0.000000000000
 15      -4.370368731699
 16       0.000000000000
 17       0.000000000000
 18      -1.821512281781
 19      -0.105551733195
 20       0.000000000000
 21       0.000000000000
 22      -0.025631009152
 23       0.000000000000
 24       0.058325030140
 25       2.338700760750
 26       0.000000000000
 27       0.050101791200
 28      -0.002673753622
 29       0.282066238110
 30       0.000000000000
 31       0.341621237323
 32       0.739066465816
 33       0.058325030140
 34       2.338700760750
 35       0.000000000000
 36      -0.050101791200
 37      -0.002673753622
 38       0.282066238110
 39       0.000000000000
 40      -0.341621237323
 41       0.739066465816
 Sym= B1
 Ene=         0.4380791210
 Spin= Alpha
 Occup=  0.0000
  1       0.000000000000
  2       0.000000000000
  3       0.000000000000
  4       0.153660461307
  5       0.000000000000
  6       0.000000000000
  7       0.677257982648
  8       0.000000000000
  9       0.000000000000
 10       0.000000000000
 11      -0.022869793045
 12       0.000000000000
 13       0.000000000000
 14       0.000000000000
 15       0.000000000000
 16       1.181473128772
 17       0.000000000000
 18       0.000000000000
 19       0.000000000000
 20       0.070724535905
 21       0.000000000000
 22       0.000000000000
 23       0.000000000000
 24       0.000000000000
 25       0.000000000000
 26      -0.002156265817
 27       0.000000000000
 28       0.000000000000
 29       0.000000000000
 30      -1.215513553974
 31       0.000000000000
 32       0.000000000000
 33       0.000000000000
 34       0.000000000000
 35      -0.002156265817
 36       0.000000000000
 37       0.000000000000
 38       0.000000000000
 39      -1.215513553974
 40       0.000000000000
 41       0.000000000000
 Sym= B2
 Ene=         0.5398934964
 Spin= Alpha
 Occup=  0.0000
  1       0.000000000000
  2       0.000000000000
  3       0.000000000000
  4       0.000000000000
  5       0.083164194670
  6       0.000000000000
  7       0.000000000000
  8       0.132309514173
  9       0.000000000000
 10       0.000000000000
 11       0.000000000000
 12       0.019162059460
 13       0.000000000000
 14       0.000000000000
 15       0.000000000000
 16       0.000000000000
 17       1.979526539121
 18       0.000000000000
 19       0.000000000000
 20       0.000000000000
 21      -0.045405249144
 22       0.000000000000
 23       0.000000000000
 24      -0.033274927210
 25      -1.493584919664
 26       0.000000000000
 27       0.022935158735
 28       0.022759946415
 29       0.794930081588
 30       0.000000000000
 31      -2.360607009148
 32      -1.040586917914
 33       0.033274927210
 34       1.493584919664
 35       0.000000000000
 36       0.022935158735
 37      -0.022759946415
 38      -0.794930081588
 39       0.000000000000
 40      -2.360607009148
 41       1.040586917914
 Sym= A1
 Ene=         0.6525329256
 Spin= Alpha
 Occup=  0.0000
  1       0.105998668005
  2      -0.030740140652
  3      -2.878029291220
  4       0.000000000000
  5       0.000000000000
  6      -0.191160883576
  7       0.000000000000
  8       0.000000000000
  9      -0.580732804062
 10      -0.008831541055
 11       0.000000000000
 12       0.000000000000
 13       0.010359673609
 14       0.000000000000
 15      -6.041549783220
 16       0.000000000000
 17       0.000000000000
 18      -0.697393651311
 19      -0.003117370363
 20       0.000000000000
 21       0.000000000000
 22      -0.049681855922
 23       0.000000000000
 24       0.140810872738
 25       3.593920608254
 26       0.000000000000
 27      -0.002669273080
 28      -0.003371463562
 29       0.566255612695
 30       0.000000000000
 31       1.350577148948
 32      -1.150221694032
 33       0.140810872738
 34       3.593920608254
 35       0.000000000000
 36       0.002669273080
 37      -0.003371463562
 38       0.566255612695
 39       0.000000000000
 40      -1.350577148948
 41      -1.150221694032
 Sym= B2
 Ene=         0.6582600978
 Spin= Alpha
 Occup=  0.0000
  1       0.000000000000
  2       0.000000000000
  3       0.000000000000
  4       0.000000000000
  5       0.261441173118
  6       0.000000000000
  7       0.000000000000
  8       1.808240661450
  9       0.000000000000
 10       0.000000000000
 11       0.000000000000
 12       0.029677312699
 13       0.000000000000
 14       0.000000000000
 15       0.000000000000
 16       0.000000000000
 17       2.613253574203
 18       0.000000000000
 19       0.000000000000
 20       0.000000000000
 21       0.111494491482
 22       0.000000000000
 23       0.000000000000
 24       0.100189440271
 25       8.716625567606
 26       0.000000000000
 27       0.029151154234
 28      -0.047399624941
 29       1.458369035698
 30       0.000000000000
 31       3.233710961792
 32      -1.670788044893
 33      -0.100189440271
 34      -8.716625567606
 35       0.000000000000
 36       0.029151154234
 37       0.047399624941
 38      -1.458369035698
 39       0.000000000000
 40       3.233710961792
 41       1.670788044893
 Sym= B2
 Ene=         0.8227158997
 Spin= Alpha
 Occup=  0.0000
  1       0.000000000000
  2       0.000000000000
  3       0.000000000000
  4       0.000000000000
  5       0.276536674932
  6       0.000000000000
  7       0.000000000000
  8      -0.309432276958
  9       0.000000000000
 10       0.000000000000
 11       0.000000000000
 12      -0.056476562568
 13       0.000000000000
 14       0.000000000000
 15       0.000000000000
 16       0.000000000000
 17      -1.110904541380
 18       0.000000000000
 19       0.000000000000
 20       0.000000000000
 21      -0.718151426855
 22       0.000000000000
 23       0.000000000000
 24       0.408914246915
 25      -2.534406090024
 26       0.000000000000
 27      -0.130122386223
 28       0.154569307741
 29      -0.165214322668
 30       0.000000000000
 31      -0.344110100250
 32      -0.139299114505
 33      -0.408914246915
 34       2.534406090024
 35       0.000000000000
 36      -0.130122386223
 37      -0.154569307741
 38       0.165214322668
 39       0.000000000000
 40      -0.344110100250
 41       0.139299114505
 Sym= A1
 Ene=         0.9296852117
 Spin= Alpha
 Occup=  0.0000
  1       0.079894695083
  2       0.191041770054
  3      -1.003379874092
  4       0.000000000000
  5       0.000000000000
  6       0.078980448407
  7       0.000000000000
  8       0.000000000000
  9      -0.227312309874
 10       0.001702986412
 11       0.000000000000
 12       0.000000000000
 13       0.040009439096
 14       0.000000000000
 15      -4.612797909511
 16       0.000000000000
 17       0.000000000000
 18      -1.155077432347
 19      -0.080800693507
 20       0.000000000000
 21       0.000000000000
 22       0.755300358895
 23       0.000000000000
 24      -0.482955770317
 25       3.159683090914
 26       0.000000000000
 27       0.179284040841
 28      -0.091237336055
 29       0.196669789487
 30       0.000000000000
 31       0.129492980134
 32      -0.280708885833
 33      -0.482955770317
 34       3.159683090914
 35       0.000000000000
 36      -0.179284040841
 37      -0.091237336055
 38       0.196669789487
 39       0.000000000000
 40      -0.129492980134
 41      -0.280708885833
 Sym= B1
 Ene=         1.0979676432
 Spin= Alpha
 Occup=  0.0000
  1       0.000000000000
  2       0.000000000000
  3       0.000000000000
  4       0.193977059858
  5       0.000000000000
  6       0.000000000000
  7       0.037581143517
  8       0.000000000000
  9       0.000000000000
 10       0.000000000000
 11      -0.021078544834
 12       0.000000000000
 13       0.000000000000
 14       0.000000000000
 15       0.000000000000
 16       0.728740126620
 17       0.000000000000
 18       0.000000000000
 19       0.000000000000
 20       1.121087560767
 21       0.000000000000
 22       0.000000000000
 23       0.000000000000
 24       0.000000000000
 25       0.000000000000
 26       0.014250703400
 27       0.000000000000
 28       0.000000000000
 29       0.000000000000
 30      -0.583891945737
 31       0.000000000000
 32       0.000000000000
 33       0.000000000000
 34       0.000000000000
 35       0.014250703400
 36       0.000000000000
 37       0.000000000000
 38       0.000000000000
 39      -0.583891945737
 40       0.000000000000
 41       0.000000000000
 Sym= A1
 Ene=         1.1123140145
 Spin= Alpha
 Occup=  0.0000
  1       0.008275901029
  2      -0.015399338341
  3      -0.604621164285
  4       0.000000000000
  5       0.000000000000
  6       0.143944236497
  7       0.000000000000
  8       0.000000000000
  9      -0.096991348321
 10      -0.017282016071
 11       0.000000000000
 12       0.000000000000
 13       0.023871768893
 14       0.000000000000
 15      -0.931275951084
 16       0.000000000000
 17       0.000000000000
 18       0.496023050320
 19       1.138470566961
 20       0.000000000000
 21       0.000000000000
 22       0.033893855291
 23       0.000000000000
 24      -0.102738808016
 25       0.677574929381
 26       0.000000000000
 27       0.093391473846
 28      -0.008496029650
 29       0.059594925539
 30       0.000000000000
 31      -0.054540026798
 32      -0.670617777986
 33      -0.102738808016
 34       0.677574929381
 35       0.000000000000
 36      -0.093391473846
 37      -0.008496029650
 38       0.059594925539
 39       0.000000000000
 40       0.054540026798
 41      -0.670617777986
 Sym= A2
 Ene=         1.1502932144
 Spin= Alpha
 Occup=  0.0000
  1       0.000000000000
  2       0.000000000000
  3       0.000000000000
  4       0.000000000000
  5       0.000000000000
  6       0.000000000000
  7       0.000000000000
  8       0.000000000000
  9       0.000000000000
 10       0.000000000000
 11       0.000000000000
 12       0.000000000000
 13       0.000000000000
 14       0.017429304809
 15       0.000000000000
 16       0.000000000000
 17       0.000000000000
 18       0.000000000000
 19       0.000000000000
 20       0.000000000000
 21       0.000000000000
 22       0.000000000000
 23      -1.244271958799
 24       0.000000000000
 25       0.000000000000
 26       0.032777681678
 27       0.000000000000
 28       0.000000000000
 29       0.000000000000
 30      -0.747106592336
 31       0.000000000000
 32       0.000000000000
 33       0.000000000000
 34       0.000000000000
 35      -0.032777681678
 36       0.000000000000
 37       0.000000000000
 38       0.000000000000
 39       0.747106592336
 40       0.000000000000
 41       0.000000000000
 Sym= A1
 Ene=         1.3207730418
 Spin= Alpha
 Occup=  0.0000
  1       0.102026834582
  2       0.210253123520
  3      -1.627515814905
  4       0.000000000000
  5       0.000000000000
  6       0.537901010209
  7       0.000000000000
  8       0.000000000000
  9      -1.187641610250
 10      -0.004278012275
 11       0.000000000000
 12       0.000000000000
 13       0.099302418552
 14       0.000000000000
 15      -3.336455009348
 16       0.000000000000
 17       0.000000000000
 18      -0.757624054728
 19      -0.385325037997
 20       0.000000000000
 21       0.000000000000
 22      -0.782330470171
 23       0.000000000000
 24      -0.469613309166
 25       2.491390914172
 26       0.000000000000
 27       0.348330897297
 28      -0.191623379940
 29       0.159425468489
 30       0.000000000000
 31       0.670576539653
 32      -0.052019527526
 33      -0.469613309166
 34       2.491390914172
 35       0.000000000000
 36      -0.348330897297
 37      -0.191623379940
 38       0.159425468489
 39       0.000000000000
 40      -0.670576539653
 41      -0.052019527526
 Sym= B2
 Ene=         1.4735030402
 Spin= Alpha
 Occup=  0.0000
  1       0.000000000000
  2       0.000000000000
  3       0.000000000000
  4       0.000000000000
  5       0.589779622049
  6       0.000000000000
  7       0.000000000000
  8      -2.029771192415
  9       0.000000000000
 10       0.000000000000
 11       0.000000000000
 12      -0.115947837277
 13       0.000000000000
 14       0.000000000000
 15       0.000000000000
 16       0.000000000000
 17      -1.139487003659
 18       0.000000000000
 19       0.000000000000